                         Program Version 4.2.1 -  RELEASE  -
|  1> * xyz  0 1
|  2>   O    0.034238   -1.051611    0.036820
|  3>   C   -0.880485   -1.818628   -0.132566
|  4>   C   -1.431699   -2.656658    0.991522
|  5>   C   -1.532068   -1.991890   -1.479901
|  6>   H   -0.977681   -2.362060    1.935600
|  7>   H   -2.519642   -2.562253    1.050554
|  8>   H   -1.215881   -3.712630    0.799843
|  9>   H   -0.989453   -1.424280   -2.233201
| 10>   H   -2.567508   -1.641176   -1.435656
| 11>   H   -1.568821   -3.048813   -1.758016
| 12> *
| 13>
| 14> %pal
| 15> nprocs 6
| 16> end
| 17>
| 18> %basis
| 19> GTOName ="system.bas";
| 20> GTOAuxName ="system.aux";
| 21> end
| 22>
| 23>
| 24> ! DFT PBE0 TightSCF
| 25>
| 26>
| 27>                          ****END OF INPUT****

CARTESIAN COORDINATES (ANGSTROEM)
---------------------------------
  O      0.034238   -1.051611    0.036820
  C     -0.880485   -1.818628   -0.132566
  C     -1.431699   -2.656658    0.991522
  C     -1.532068   -1.991890   -1.479901
  H     -0.977681   -2.362060    1.935600
  H     -2.519642   -2.562253    1.050554
  H     -1.215881   -3.712630    0.799843
  H     -0.989453   -1.424280   -2.233201
  H     -2.567508   -1.641176   -1.435656
  H     -1.568821   -3.048813   -1.758016

 Total Charge           Charge          ....    0
 Multiplicity           Mult            ....    1
 Number of Electrons    NEL             ....   32
 Basis Dimension        Dim             ....  160

ORBITAL ENERGIES
----------------

  NO   OCC          E(Eh)            E(eV)
   0   2.0000     -19.192424      -522.2524
   1   2.0000     -10.313410      -280.6422
   2   2.0000     -10.227054      -278.2923
   3   2.0000     -10.226709      -278.2829
   4   2.0000      -1.074766       -29.2459
   5   2.0000      -0.797468       -21.7002
   6   2.0000      -0.736103       -20.0304
   7   2.0000      -0.552457       -15.0331
   8   2.0000      -0.480854       -13.0847
   9   2.0000      -0.479243       -13.0409
  10   2.0000      -0.470983       -12.8161
  11   2.0000      -0.418527       -11.3887
  12   2.0000      -0.412583       -11.2270
  13   2.0000      -0.394556       -10.7364
  14   2.0000      -0.367555       -10.0017
  15   2.0000      -0.265149        -7.2151
  16   0.0000      -0.011489        -0.3126
  17   0.0000       0.036354         0.9893
  18   0.0000       0.090016         2.4494
  19   0.0000       0.104837         2.8528
  20   0.0000       0.108359         2.9486

MULLIKEN ATOMIC CHARGES
-----------------------
   0 O :   -0.288433
   1 C :    0.176069
   2 C :   -0.362836
   3 C :   -0.339626
   4 H :    0.140491
   5 H :    0.138059
   6 H :    0.137541
   7 H :    0.139955
   8 H :    0.130861
   9 H :    0.127920
Sum of atomic charges:    0.0000000

LOEWDIN ATOMIC CHARGES
----------------------
   0 O :    0.132469
   1 C :   -0.397581
   2 C :   -0.275302
   3 C :   -0.273717
   4 H :    0.133124
   5 H :    0.135489
   6 H :    0.139102
   7 H :    0.133151
   8 H :    0.138268
   9 H :    0.134996

  Mayer bond orders larger than 0.100000
B(  0-O ,  1-C ) :   2.1427 B(  1-C ,  2-C ) :   0.9858 B(  1-C ,  3-C ) :   0.9839
B(  2-C ,  4-H ) :   0.9655 B(  2-C ,  5-H ) :   0.9437 B(  2-C ,  6-H ) :   0.9420
B(  3-C ,  7-H ) :   0.9659 B(  3-C ,  8-H ) :   0.9402 B(  3-C ,  9-H ) :   0.9432

FINAL SINGLE POINT ENERGY      -193.003001444930

DIPOLE MOMENT
-------------
                                X             Y             Z
Electronic contribution:      2.94114       2.47789       0.54534
Nuclear contribution   :     -3.83286      -3.22679      -0.71067
                        -----------------------------------------
Total Dipole Moment    :     -0.89172      -0.74890      -0.16532
                        -----------------------------------------
Magnitude (a.u.)       :      1.17615
Magnitude (Debye)      :      2.98954

Rotational constants in cm-1:     0.341602     0.286936     0.165457
Rotational constants in MHz : 10240.981080  8602.112116  4960.284316

                             ****ORCA TERMINATED NORMALLY****
TOTAL RUN TIME: 0 days 0 hours 0 minutes 10 seconds 56 msec
