                         Program Version 4.2.1 -  RELEASE  -
|  1> * xyz  0 1
|  2>   O    0.347830    9.848640    2.499119
|  3>   C    0.647923    9.351901    1.442275
|  4>   C    0.453584   10.081936    0.138825
|  5>   C    1.235329    7.967311    1.354206
|  6>   H    0.145990   11.108673    0.326978
|  7>   H    1.370486   10.066104   -0.457040
|  8>   H   -0.316395    9.575773   -0.452215
|  9>   H    1.230783    7.496338    2.335143
| 10>   H    2.263066    8.026563    0.983614
| 11>   H    0.677320    7.355839    0.639703
| 12> *
| 13>
| 14> %pal
| 15> nprocs 6
| 16> end
| 17>
| 18> %basis
| 19> GTOName ="system.bas";
| 20> GTOAuxName ="system.aux";
| 21> end
| 22>
| 23>
| 24> %pointcharges "background.crg"
| 25> ! DFT PBE0 TightSCF
| 26>
| 27>                          ****END OF INPUT****

CARTESIAN COORDINATES (ANGSTROEM)
---------------------------------
  O      0.347830    9.848640    2.499119
  C      0.647923    9.351901    1.442275
  C      0.453584   10.081936    0.138825
  C      1.235329    7.967311    1.354206
  H      0.145990   11.108673    0.326978
  H      1.370486   10.066104   -0.457040
  H     -0.316395    9.575773   -0.452215
  H      1.230783    7.496338    2.335143
  H      2.263066    8.026563    0.983614
  H      0.677320    7.355839    0.639703

 Total Charge           Charge          ....    0
 Multiplicity           Mult            ....    1
 Number of Electrons    NEL             ....   32
 Basis Dimension        Dim             ....  160

ORBITAL ENERGIES
----------------

  NO   OCC          E(Eh)            E(eV)
   0   2.0000     -19.205574      -522.6102
   1   2.0000     -10.322084      -280.8782
   2   2.0000     -10.217427      -278.0303
   3   2.0000     -10.216782      -278.0128
   4   2.0000      -1.089460       -29.6457
   5   2.0000      -0.792382       -21.5618
   6   2.0000      -0.728245       -19.8165
   7   2.0000      -0.554409       -15.0862
   8   2.0000      -0.480397       -13.0723
   9   2.0000      -0.477683       -12.9984
  10   2.0000      -0.475772       -12.9464
  11   2.0000      -0.411435       -11.1957
  12   2.0000      -0.406904       -11.0724
  13   2.0000      -0.386284       -10.5113
  14   2.0000      -0.376529       -10.2459
  15   2.0000      -0.276551        -7.5253
  16   0.0000      -0.017795        -0.4842
  17   0.0000       0.055620         1.5135
  18   0.0000       0.107267         2.9189
  19   0.0000       0.117334         3.1928
  20   0.0000       0.135801         3.6953

MULLIKEN ATOMIC CHARGES
-----------------------
   0 O :   -0.413205
   1 C :    0.193989
   2 C :   -0.353364
   3 C :   -0.355960
   4 H :    0.140563
   5 H :    0.178787
   6 H :    0.136250
   7 H :    0.148319
   8 H :    0.154242
   9 H :    0.170379
Sum of atomic charges:   -0.0000000

LOEWDIN ATOMIC CHARGES
----------------------
   0 O :    0.058252
   1 C :   -0.386976
   2 C :   -0.263691
   3 C :   -0.267999
   4 H :    0.133826
   5 H :    0.150315
   6 H :    0.144519
   7 H :    0.132798
   8 H :    0.149116
   9 H :    0.149841

  Mayer bond orders larger than 0.100000
B(  0-O ,  1-C ) :   2.0047 B(  1-C ,  2-C ) :   1.0047 B(  1-C ,  3-C ) :   1.0278
B(  2-C ,  4-H ) :   0.9581 B(  2-C ,  5-H ) :   0.9340 B(  2-C ,  6-H ) :   0.9340
B(  3-C ,  7-H ) :   0.9464 B(  3-C ,  8-H ) :   0.9351 B(  3-C ,  9-H ) :   0.9288

FINAL SINGLE POINT ENERGY      -193.027566971670

DIPOLE MOMENT
-------------
                                X             Y             Z
Electronic contribution:     -0.85908       1.40165       2.90552
Nuclear contribution   :      1.24999      -2.08650      -4.43757
                        -----------------------------------------
Total Dipole Moment    :      0.39092      -0.68485      -1.53205
                        -----------------------------------------
Magnitude (a.u.)       :      1.72308
Magnitude (Debye)      :      4.37972

Rotational constants in cm-1:     0.341602     0.286936     0.165457
Rotational constants in MHz : 10240.985309  8602.118847  4960.287623

                             ****ORCA TERMINATED NORMALLY****
TOTAL RUN TIME: 0 days 0 hours 0 minutes 9 seconds 637 msec
