                         Program Version 4.2.1 -  RELEASE  -
|  1> * xyz  0 1
|  2>   O    0.176612    9.365964    3.821232
|  3>   C    0.433991    9.407454    2.644050
|  4>   C    0.713961   10.708819    1.938522
|  5>   C    0.490824    8.161115    1.799478
|  6>   H    0.771158   11.521250    2.660248
|  7>   H    1.642611   10.648607    1.364065
|  8>   H   -0.087821   10.916209    1.222610
|  9>   H    0.169423    7.300002    2.381938
| 10>   H    1.514532    8.001256    1.447966
| 11>   H   -0.134947    8.269054    0.909228
| 12> *
| 13>
| 14> %pal
| 15> nprocs 26
| 16> end
| 17>
| 18> %basis
| 19> GTOName ="system.bas";
| 20> GTOAuxName ="system.aux";
| 21> end
| 22>
| 23>
| 24> %pointcharges "background.crg"
| 25> ! DFT PBE0 TightSCF
| 26>
| 27>
| 28>                          ****END OF INPUT****

CARTESIAN COORDINATES (ANGSTROEM)
---------------------------------
  O      0.176612    9.365964    3.821232
  C      0.433991    9.407454    2.644050
  C      0.713961   10.708819    1.938522
  C      0.490824    8.161115    1.799478
  H      0.771158   11.521250    2.660248
  H      1.642611   10.648607    1.364065
  H     -0.087821   10.916209    1.222610
  H      0.169423    7.300002    2.381938
  H      1.514532    8.001256    1.447966
  H     -0.134947    8.269054    0.909228

 Total Charge           Charge          ....    0
 Multiplicity           Mult            ....    1
 Number of Electrons    NEL             ....   32
 Basis Dimension        Dim             ....  160

ORBITAL ENERGIES
----------------

  NO   OCC          E(Eh)            E(eV)
   0   2.0000     -19.202327      -522.5219
   1   2.0000     -10.323298      -280.9112
   2   2.0000     -10.225064      -278.2381
   3   2.0000     -10.224191      -278.2144
   4   2.0000      -1.086194       -29.5568
   5   2.0000      -0.797689       -21.7062
   6   2.0000      -0.734812       -19.9952
   7   2.0000      -0.558134       -15.1876
   8   2.0000      -0.483102       -13.1459
   9   2.0000      -0.481466       -13.1014
  10   2.0000      -0.478348       -13.0165
  11   2.0000      -0.417133       -11.3508
  12   2.0000      -0.414481       -11.2786
  13   2.0000      -0.394016       -10.7217
  14   2.0000      -0.376544       -10.2463
  15   2.0000      -0.274392        -7.4666
  16   0.0000      -0.018967        -0.5161
  17   0.0000       0.046966         1.2780
  18   0.0000       0.096666         2.6304
  19   0.0000       0.106634         2.9017
  20   0.0000       0.119339         3.2474

MULLIKEN ATOMIC CHARGES
-----------------------
   0 O :   -0.386941
   1 C :    0.237039
   2 C :   -0.398423
   3 C :   -0.343739
   4 H :    0.162896
   5 H :    0.127816
   6 H :    0.173593
   7 H :    0.127382
   8 H :    0.147325
   9 H :    0.153052
Sum of atomic charges:   -0.0000000

LOEWDIN ATOMIC CHARGES
----------------------
   0 O :    0.075094
   1 C :   -0.376248
   2 C :   -0.272217
   3 C :   -0.267043
   4 H :    0.135806
   5 H :    0.134246
   6 H :    0.150864
   7 H :    0.128675
   8 H :    0.147214
   9 H :    0.143611

  Mayer bond orders larger than 0.100000
B(  0-O ,  1-C ) :   2.0502 B(  1-C ,  2-C ) :   1.0001 B(  1-C ,  3-C ) :   1.0235
B(  2-C ,  4-H ) :   0.9589 B(  2-C ,  5-H ) :   0.9447 B(  2-C ,  6-H ) :   0.9295
B(  3-C ,  7-H ) :   0.9636 B(  3-C ,  8-H ) :   0.9298 B(  3-C ,  9-H ) :   0.9364

FINAL SINGLE POINT ENERGY      -193.019475940851

DIPOLE MOMENT
-------------
                                X             Y             Z
Electronic contribution:     -0.85279      -0.10101       3.42941
Nuclear contribution   :      1.07117       0.17750      -4.94258
                        -----------------------------------------
Total Dipole Moment    :      0.21838       0.07649      -1.51317
                        -----------------------------------------
Magnitude (a.u.)       :      1.53076
Magnitude (Debye)      :      3.89089

Rotational constants in cm-1:     0.341602     0.286936     0.165457
Rotational constants in MHz : 10240.984489  8602.114949  4960.286098

                             ****ORCA TERMINATED NORMALLY****
TOTAL RUN TIME: 0 days 0 hours 0 minutes 4 seconds 32 msec
