                         Program Version 4.2.1 -  RELEASE  -
|  1> * xyz  0 1
|  2>   O    2.677094   10.173417   13.839622
|  3>   C    2.493049   11.071917   13.056967
|  4>   C    1.956264   10.820191   11.671976
|  5>   C    2.789435   12.506090   13.410795
|  6>   H    1.660798    9.777970   11.568634
|  7>   H    1.107503   11.475807   11.457992
|  8>   H    2.729455   11.052404   10.932620
|  9>   H    3.269158   12.558932   14.386062
| 10>   H    1.858093   13.079903   13.431669
| 11>   H    3.426954   12.967340   12.651450
| 12> *
| 13>
| 14> %pal
| 15> nprocs 26
| 16> end
| 17>
| 18> %basis
| 19> GTOName ="system.bas";
| 20> GTOAuxName ="system.aux";
| 21> end
| 22>
| 23>
| 24> %pointcharges "background.crg"
| 25> ! DFT PBE0 TightSCF
| 26>
| 27>
| 28>                          ****END OF INPUT****

CARTESIAN COORDINATES (ANGSTROEM)
---------------------------------
  O      2.677094   10.173417   13.839622
  C      2.493049   11.071917   13.056967
  C      1.956264   10.820191   11.671976
  C      2.789435   12.506090   13.410795
  H      1.660798    9.777970   11.568634
  H      1.107503   11.475807   11.457992
  H      2.729455   11.052404   10.932620
  H      3.269158   12.558932   14.386062
  H      1.858093   13.079903   13.431669
  H      3.426954   12.967340   12.651450

 Total Charge           Charge          ....    0
 Multiplicity           Mult            ....    1
 Number of Electrons    NEL             ....   32
 Basis Dimension        Dim             ....  160

ORBITAL ENERGIES
----------------

  NO   OCC          E(Eh)            E(eV)
   0   2.0000     -19.212233      -522.7914
   1   2.0000     -10.328271      -281.0465
   2   2.0000     -10.228234      -278.3244
   3   2.0000     -10.221210      -278.1333
   4   2.0000      -1.096382       -29.8341
   5   2.0000      -0.799608       -21.7584
   6   2.0000      -0.734905       -19.9978
   7   2.0000      -0.560588       -15.2544
   8   2.0000      -0.487640       -13.2693
   9   2.0000      -0.483532       -13.1576
  10   2.0000      -0.482967       -13.1422
  11   2.0000      -0.419443       -11.4136
  12   2.0000      -0.413800       -11.2601
  13   2.0000      -0.393425       -10.7056
  14   2.0000      -0.383168       -10.4265
  15   2.0000      -0.283730        -7.7207
  16   0.0000      -0.024385        -0.6636
  17   0.0000       0.043061         1.1718
  18   0.0000       0.100808         2.7431
  19   0.0000       0.107563         2.9269
  20   0.0000       0.117973         3.2102

MULLIKEN ATOMIC CHARGES
-----------------------
   0 O :   -0.413344
   1 C :    0.199767
   2 C :   -0.315837
   3 C :   -0.310560
   4 H :    0.132185
   5 H :    0.129594
   6 H :    0.143683
   7 H :    0.117856
   8 H :    0.156445
   9 H :    0.160210
Sum of atomic charges:   -0.0000000

LOEWDIN ATOMIC CHARGES
----------------------
   0 O :    0.058458
   1 C :   -0.386499
   2 C :   -0.260078
   3 C :   -0.258451
   4 H :    0.132672
   5 H :    0.139277
   6 H :    0.147101
   7 H :    0.131930
   8 H :    0.145786
   9 H :    0.149805

  Mayer bond orders larger than 0.100000
B(  0-O ,  1-C ) :   1.9870 B(  1-C ,  2-C ) :   1.0004 B(  1-C ,  3-C ) :   1.0254
B(  2-C ,  4-H ) :   0.9590 B(  2-C ,  5-H ) :   0.9459 B(  2-C ,  6-H ) :   0.9394
B(  3-C ,  7-H ) :   0.9550 B(  3-C ,  8-H ) :   0.9309 B(  3-C ,  9-H ) :   0.9312

FINAL SINGLE POINT ENERGY      -193.026188144741

DIPOLE MOMENT
-------------
                                X             Y             Z
Electronic contribution:      0.60815      -2.55146       2.15756
Nuclear contribution   :     -0.76435       3.76842      -3.28980
                        -----------------------------------------
Total Dipole Moment    :     -0.15620       1.21696      -1.13224
                        -----------------------------------------
Magnitude (a.u.)       :      1.66954
Magnitude (Debye)      :      4.24362

Rotational constants in cm-1:     0.341603     0.286936     0.165457
Rotational constants in MHz : 10240.986954  8602.113457  4960.286229

                             ****ORCA TERMINATED NORMALLY****
TOTAL RUN TIME: 0 days 0 hours 0 minutes 4 seconds 105 msec
