                         Program Version 4.2.1 -  RELEASE  -
|  1> * xyz  0 1
|  2>   O   -0.303698    9.710762    3.105882
|  3>   C    0.331926    9.400485    2.129443
|  4>   C    0.020347    9.964615    0.767688
|  5>   C    1.478821    8.426438    2.205318
|  6>   H   -0.734265   10.744440    0.849171
|  7>   H    0.922985   10.361241    0.294455
|  8>   H   -0.352571    9.166315    0.118039
|  9>   H    1.545058    8.004340    3.206078
| 10>   H    2.414310    8.940088    1.964241
| 11>   H    1.357680    7.628995    1.466945
| 12> *
| 13>
| 14> %pal
| 15> nprocs 26
| 16> end
| 17>
| 18> %basis
| 19> GTOName ="system.bas";
| 20> GTOAuxName ="system.aux";
| 21> end
| 22>
| 23>
| 24> %pointcharges "background.crg"
| 25> ! DFT PBE0 TightSCF
| 26>
| 27>
| 28>                          ****END OF INPUT****

CARTESIAN COORDINATES (ANGSTROEM)
---------------------------------
  O     -0.303698    9.710762    3.105882
  C      0.331926    9.400485    2.129443
  C      0.020347    9.964615    0.767688
  C      1.478821    8.426438    2.205318
  H     -0.734265   10.744440    0.849171
  H      0.922985   10.361241    0.294455
  H     -0.352571    9.166315    0.118039
  H      1.545058    8.004340    3.206078
  H      2.414310    8.940088    1.964241
  H      1.357680    7.628995    1.466945

 Total Charge           Charge          ....    0
 Multiplicity           Mult            ....    1
 Number of Electrons    NEL             ....   32
 Basis Dimension        Dim             ....  160

ORBITAL ENERGIES
----------------

  NO   OCC          E(Eh)            E(eV)
   0   2.0000     -19.192064      -522.2426
   1   2.0000     -10.312729      -280.6236
   2   2.0000     -10.213213      -277.9157
   3   2.0000     -10.211525      -277.8697
   4   2.0000      -1.076338       -29.2886
   5   2.0000      -0.786257       -21.3951
   6   2.0000      -0.722551       -19.6616
   7   2.0000      -0.546439       -14.8694
   8   2.0000      -0.472117       -12.8470
   9   2.0000      -0.470224       -12.7955
  10   2.0000      -0.466808       -12.7025
  11   2.0000      -0.405027       -11.0213
  12   2.0000      -0.403095       -10.9688
  13   2.0000      -0.380136       -10.3440
  14   2.0000      -0.367156        -9.9908
  15   2.0000      -0.263500        -7.1702
  16   0.0000      -0.009870        -0.2686
  17   0.0000       0.056796         1.5455
  18   0.0000       0.108731         2.9587
  19   0.0000       0.125451         3.4137
  20   0.0000       0.131849         3.5878

MULLIKEN ATOMIC CHARGES
-----------------------
   0 O :   -0.398077
   1 C :    0.215651
   2 C :   -0.387758
   3 C :   -0.313258
   4 H :    0.172863
   5 H :    0.150494
   6 H :    0.144300
   7 H :    0.141689
   8 H :    0.119636
   9 H :    0.154460
Sum of atomic charges:   -0.0000000

LOEWDIN ATOMIC CHARGES
----------------------
   0 O :    0.071214
   1 C :   -0.379884
   2 C :   -0.271656
   3 C :   -0.262388
   4 H :    0.138500
   5 H :    0.142549
   6 H :    0.142540
   7 H :    0.135627
   8 H :    0.140964
   9 H :    0.142535

  Mayer bond orders larger than 0.100000
B(  0-O ,  1-C ) :   2.0352 B(  1-C ,  2-C ) :   1.0001 B(  1-C ,  3-C ) :   1.0261
B(  2-C ,  4-H ) :   0.9594 B(  2-C ,  5-H ) :   0.9368 B(  2-C ,  6-H ) :   0.9359
B(  3-C ,  7-H ) :   0.9615 B(  3-C ,  8-H ) :   0.9273 B(  3-C ,  9-H ) :   0.9388

FINAL SINGLE POINT ENERGY      -193.019398434550

DIPOLE MOMENT
-------------
                                X             Y             Z
Electronic contribution:     -1.77406       0.98023       2.92930
Nuclear contribution   :      2.66034      -1.30800      -4.10118
                        -----------------------------------------
Total Dipole Moment    :      0.88628      -0.32777      -1.17189
                        -----------------------------------------
Magnitude (a.u.)       :      1.50541
Magnitude (Debye)      :      3.82644

Rotational constants in cm-1:     0.341603     0.286936     0.165457
Rotational constants in MHz : 10240.987412  8602.118984  4960.288053

                             ****ORCA TERMINATED NORMALLY****
TOTAL RUN TIME: 0 days 0 hours 0 minutes 4 seconds 235 msec
