                         Program Version 4.2.1 -  RELEASE  -
|  1> * xyz  0 1
|  2>   O    0.176612    9.365961    3.821232
|  3>   C    0.433991    9.407451    2.644050
|  4>   C    0.713961   10.708816    1.938522
|  5>   C    0.490824    8.161112    1.799478
|  6>   H    0.771158   11.521247    2.660248
|  7>   H    1.642611   10.648604    1.364065
|  8>   H   -0.087821   10.916206    1.222610
|  9>   H    0.169423    7.299999    2.381938
| 10>   H    1.514532    8.001253    1.447966
| 11>   H   -0.134947    8.269051    0.909228
| 12> *
| 13>
| 14> %pal
| 15> nprocs 6
| 16> end
| 17>
| 18> %basis
| 19> GTOName ="system.bas";
| 20> GTOAuxName ="system.aux";
| 21> end
| 22>
| 23>
| 24> %pointcharges "background.crg"
| 25> ! DFT PBE0 TightSCF
| 26>
| 27>
| 28>                          ****END OF INPUT****

CARTESIAN COORDINATES (ANGSTROEM)
---------------------------------
  O      0.176612    9.365961    3.821232
  C      0.433991    9.407451    2.644050
  C      0.713961   10.708816    1.938522
  C      0.490824    8.161112    1.799478
  H      0.771158   11.521247    2.660248
  H      1.642611   10.648604    1.364065
  H     -0.087821   10.916206    1.222610
  H      0.169423    7.299999    2.381938
  H      1.514532    8.001253    1.447966
  H     -0.134947    8.269051    0.909228

 Total Charge           Charge          ....    0
 Multiplicity           Mult            ....    1
 Number of Electrons    NEL             ....   32
 Basis Dimension        Dim             ....  160

ORBITAL ENERGIES
----------------

  NO   OCC          E(Eh)            E(eV)
   0   2.0000     -19.191050      -522.2150
   1   2.0000     -10.312656      -280.6216
   2   2.0000     -10.217604      -278.0351
   3   2.0000     -10.217162      -278.0231
   4   2.0000      -1.074574       -29.2406
   5   2.0000      -0.789543       -21.4846
   6   2.0000      -0.727315       -19.7912
   7   2.0000      -0.548530       -14.9262
   8   2.0000      -0.474318       -12.9069
   9   2.0000      -0.471906       -12.8412
  10   2.0000      -0.468754       -12.7554
  11   2.0000      -0.408488       -11.1155
  12   2.0000      -0.407244       -11.0817
  13   2.0000      -0.386557       -10.5188
  14   2.0000      -0.365937        -9.9577
  15   2.0000      -0.263537        -7.1712
  16   0.0000      -0.008599        -0.2340
  17   0.0000       0.052943         1.4407
  18   0.0000       0.101658         2.7663
  19   0.0000       0.113008         3.0751
  20   0.0000       0.124998         3.4014

MULLIKEN ATOMIC CHARGES
-----------------------
   0 O :   -0.361839
   1 C :    0.228914
   2 C :   -0.394006
   3 C :   -0.349101
   4 H :    0.162507
   5 H :    0.123907
   6 H :    0.166749
   7 H :    0.129473
   8 H :    0.142982
   9 H :    0.150415
Sum of atomic charges:   -0.0000000

LOEWDIN ATOMIC CHARGES
----------------------
   0 O :    0.090535
   1 C :   -0.379177
   2 C :   -0.273724
   3 C :   -0.270092
   4 H :    0.135723
   5 H :    0.132943
   6 H :    0.148216
   7 H :    0.128700
   8 H :    0.144869
   9 H :    0.142007

  Mayer bond orders larger than 0.100000
B(  0-O ,  1-C ) :   2.0788 B(  1-C ,  2-C ) :   0.9986 B(  1-C ,  3-C ) :   1.0163
B(  2-C ,  4-H ) :   0.9594 B(  2-C ,  5-H ) :   0.9445 B(  2-C ,  6-H ) :   0.9322
B(  3-C ,  7-H ) :   0.9644 B(  3-C ,  8-H ) :   0.9314 B(  3-C ,  9-H ) :   0.9375

FINAL SINGLE POINT ENERGY      -193.014822457762

DIPOLE MOMENT
-------------
                                X             Y             Z
Electronic contribution:     -0.86103      -0.09972       3.53311
Nuclear contribution   :      1.07117       0.17750      -4.94258
                        -----------------------------------------
Total Dipole Moment    :      0.21014       0.07779      -1.40947
                        -----------------------------------------
Magnitude (a.u.)       :      1.42717
Magnitude (Debye)      :      3.62759

Rotational constants in cm-1:     0.341602     0.286936     0.165457
Rotational constants in MHz : 10240.984489  8602.114949  4960.286098

                             ****ORCA TERMINATED NORMALLY****
TOTAL RUN TIME: 0 days 0 hours 0 minutes 6 seconds 996 msec
