                         Program Version 4.2.1 -  RELEASE  -
|  1> * xyz  0 1
|  2>   O    0.176612    9.365963    3.821232
|  3>   C    0.433991    9.407453    2.644050
|  4>   C    0.713961   10.708818    1.938522
|  5>   C    0.490824    8.161114    1.799478
|  6>   H    0.771158   11.521249    2.660248
|  7>   H    1.642611   10.648606    1.364065
|  8>   H   -0.087821   10.916208    1.222610
|  9>   H    0.169423    7.300001    2.381938
| 10>   H    1.514532    8.001255    1.447966
| 11>   H   -0.134947    8.269053    0.909228
| 12> *
| 13>
| 14> %pal
| 15> nprocs 26
| 16> end
| 17>
| 18> %basis
| 19> GTOName ="system.bas";
| 20> GTOAuxName ="system.aux";
| 21> end
| 22>
| 23>
| 24> %pointcharges "background.crg"
| 25> ! DFT PBE0 TightSCF
| 26>
| 27>
| 28>                          ****END OF INPUT****

CARTESIAN COORDINATES (ANGSTROEM)
---------------------------------
  O      0.176612    9.365963    3.821232
  C      0.433991    9.407453    2.644050
  C      0.713961   10.708818    1.938522
  C      0.490824    8.161114    1.799478
  H      0.771158   11.521249    2.660248
  H      1.642611   10.648606    1.364065
  H     -0.087821   10.916208    1.222610
  H      0.169423    7.300001    2.381938
  H      1.514532    8.001255    1.447966
  H     -0.134947    8.269053    0.909228

 Total Charge           Charge          ....    0
 Multiplicity           Mult            ....    1
 Number of Electrons    NEL             ....   32
 Basis Dimension        Dim             ....  160

ORBITAL ENERGIES
----------------

  NO   OCC          E(Eh)            E(eV)
   0   2.0000     -19.199752      -522.4518
   1   2.0000     -10.321062      -280.8504
   2   2.0000     -10.224788      -278.2306
   3   2.0000     -10.223877      -278.2058
   4   2.0000      -1.083453       -29.4823
   5   2.0000      -0.796960       -21.6864
   6   2.0000      -0.734388       -19.9837
   7   2.0000      -0.556460       -15.1420
   8   2.0000      -0.481945       -13.1144
   9   2.0000      -0.479908       -13.0590
  10   2.0000      -0.476806       -12.9745
  11   2.0000      -0.416070       -11.3219
  12   2.0000      -0.414319       -11.2742
  13   2.0000      -0.393488       -10.7073
  14   2.0000      -0.374420       -10.1885
  15   2.0000      -0.271987        -7.4012
  16   0.0000      -0.017086        -0.4649
  17   0.0000       0.046181         1.2566
  18   0.0000       0.096198         2.6177
  19   0.0000       0.106914         2.9093
  20   0.0000       0.118314         3.2195

MULLIKEN ATOMIC CHARGES
-----------------------
   0 O :   -0.371202
   1 C :    0.228638
   2 C :   -0.398305
   3 C :   -0.344722
   4 H :    0.164926
   5 H :    0.124030
   6 H :    0.171612
   7 H :    0.129823
   8 H :    0.145030
   9 H :    0.150170
Sum of atomic charges:   -0.0000000

LOEWDIN ATOMIC CHARGES
----------------------
   0 O :    0.084374
   1 C :   -0.379041
   2 C :   -0.273523
   3 C :   -0.268462
   4 H :    0.136178
   5 H :    0.132819
   6 H :    0.149966
   7 H :    0.129109
   8 H :    0.146219
   9 H :    0.142362

  Mayer bond orders larger than 0.100000
B(  0-O ,  1-C ) :   2.0663 B(  1-C ,  2-C ) :   0.9972 B(  1-C ,  3-C ) :   1.0204
B(  2-C ,  4-H ) :   0.9588 B(  2-C ,  5-H ) :   0.9455 B(  2-C ,  6-H ) :   0.9303
B(  3-C ,  7-H ) :   0.9637 B(  3-C ,  8-H ) :   0.9306 B(  3-C ,  9-H ) :   0.9373

FINAL SINGLE POINT ENERGY      -193.016613618793

DIPOLE MOMENT
-------------
                                X             Y             Z
Electronic contribution:     -0.86228      -0.10427       3.48929
Nuclear contribution   :      1.07117       0.17750      -4.94258
                        -----------------------------------------
Total Dipole Moment    :      0.20889       0.07323      -1.45329
                        -----------------------------------------
Magnitude (a.u.)       :      1.47005
Magnitude (Debye)      :      3.73658

Rotational constants in cm-1:     0.341602     0.286936     0.165457
Rotational constants in MHz : 10240.984489  8602.114949  4960.286098

                             ****ORCA TERMINATED NORMALLY****
TOTAL RUN TIME: 0 days 0 hours 0 minutes 4 seconds 544 msec
