                         Program Version 4.2.1 -  RELEASE  -
|  1> * xyz  0 1
|  2>   O    0.347830    9.848641    2.499119
|  3>   C    0.647923    9.351902    1.442275
|  4>   C    0.453584   10.081937    0.138825
|  5>   C    1.235329    7.967312    1.354206
|  6>   H    0.145990   11.108674    0.326978
|  7>   H    1.370486   10.066105   -0.457040
|  8>   H   -0.316395    9.575774   -0.452215
|  9>   H    1.230783    7.496339    2.335143
| 10>   H    2.263066    8.026564    0.983614
| 11>   H    0.677320    7.355840    0.639703
| 12> *
| 13>
| 14> %pal
| 15> nprocs 6
| 16> end
| 17>
| 18> %basis
| 19> GTOName ="system.bas";
| 20> GTOAuxName ="system.aux";
| 21> end
| 22>
| 23>
| 24> %pointcharges "background.crg"
| 25> ! DFT PBE0 TightSCF
| 26>
| 27>                          ****END OF INPUT****

CARTESIAN COORDINATES (ANGSTROEM)
---------------------------------
  O      0.347830    9.848641    2.499119
  C      0.647923    9.351902    1.442275
  C      0.453584   10.081937    0.138825
  C      1.235329    7.967312    1.354206
  H      0.145990   11.108674    0.326978
  H      1.370486   10.066105   -0.457040
  H     -0.316395    9.575774   -0.452215
  H      1.230783    7.496339    2.335143
  H      2.263066    8.026564    0.983614
  H      0.677320    7.355840    0.639703

 Total Charge           Charge          ....    0
 Multiplicity           Mult            ....    1
 Number of Electrons    NEL             ....   32
 Basis Dimension        Dim             ....  160

ORBITAL ENERGIES
----------------

  NO   OCC          E(Eh)            E(eV)
   0   2.0000     -19.209229      -522.7097
   1   2.0000     -10.324938      -280.9558
   2   2.0000     -10.217948      -278.0445
   3   2.0000     -10.217431      -278.0304
   4   2.0000      -1.093179       -29.7469
   5   2.0000      -0.793496       -21.5921
   6   2.0000      -0.729024       -19.8377
   7   2.0000      -0.556922       -15.1546
   8   2.0000      -0.482276       -13.1234
   9   2.0000      -0.480356       -13.0711
  10   2.0000      -0.477396       -12.9906
  11   2.0000      -0.412850       -11.2342
  12   2.0000      -0.407082       -11.0773
  13   2.0000      -0.387136       -10.5345
  14   2.0000      -0.379151       -10.3172
  15   2.0000      -0.279995        -7.6190
  16   0.0000      -0.020171        -0.5489
  17   0.0000       0.056062         1.5255
  18   0.0000       0.107528         2.9260
  19   0.0000       0.116719         3.1761
  20   0.0000       0.136839         3.7236

MULLIKEN ATOMIC CHARGES
-----------------------
   0 O :   -0.433659
   1 C :    0.207406
   2 C :   -0.355943
   3 C :   -0.358458
   4 H :    0.139210
   5 H :    0.182055
   6 H :    0.139812
   7 H :    0.145943
   8 H :    0.157000
   9 H :    0.176632
Sum of atomic charges:    0.0000000

LOEWDIN ATOMIC CHARGES
----------------------
   0 O :    0.047184
   1 C :   -0.383763
   2 C :   -0.262341
   3 C :   -0.266667
   4 H :    0.133530
   5 H :    0.151662
   6 H :    0.145894
   7 H :    0.132244
   8 H :    0.150358
   9 H :    0.151898

  Mayer bond orders larger than 0.100000
B(  0-O ,  1-C ) :   1.9786 B(  1-C ,  2-C ) :   1.0081 B(  1-C ,  3-C ) :   1.0324
B(  2-C ,  4-H ) :   0.9579 B(  2-C ,  5-H ) :   0.9325 B(  2-C ,  6-H ) :   0.9330
B(  3-C ,  7-H ) :   0.9459 B(  3-C ,  8-H ) :   0.9342 B(  3-C ,  9-H ) :   0.9268

FINAL SINGLE POINT ENERGY      -193.031775688958

DIPOLE MOMENT
-------------
                                X             Y             Z
Electronic contribution:     -0.84264       1.37113       2.83990
Nuclear contribution   :      1.24999      -2.08650      -4.43757
                        -----------------------------------------
Total Dipole Moment    :      0.40735      -0.71536      -1.59767
                        -----------------------------------------
Magnitude (a.u.)       :      1.79729
Magnitude (Debye)      :      4.56834

Rotational constants in cm-1:     0.341602     0.286936     0.165457
Rotational constants in MHz : 10240.985309  8602.118847  4960.287623

                             ****ORCA TERMINATED NORMALLY****
TOTAL RUN TIME: 0 days 0 hours 0 minutes 5 seconds 71 msec
