                         Program Version 4.2.1 -  RELEASE  -
|  1> * xyz  0 1
|  2>   O    0.347830    9.848639    2.499119
|  3>   C    0.647923    9.351900    1.442275
|  4>   C    0.453584   10.081935    0.138825
|  5>   C    1.235329    7.967310    1.354206
|  6>   H    0.145990   11.108672    0.326978
|  7>   H    1.370486   10.066103   -0.457040
|  8>   H   -0.316395    9.575772   -0.452215
|  9>   H    1.230783    7.496337    2.335143
| 10>   H    2.263066    8.026562    0.983614
| 11>   H    0.677320    7.355838    0.639703
| 12> *
| 13>
| 14> %pal
| 15> nprocs 6
| 16> end
| 17>
| 18> %basis
| 19> GTOName ="system.bas";
| 20> GTOAuxName ="system.aux";
| 21> end
| 22>
| 23>
| 24> %pointcharges "background.crg"
| 25> ! DFT PBE0 TightSCF
| 26>
| 27>
| 28>                          ****END OF INPUT****

CARTESIAN COORDINATES (ANGSTROEM)
---------------------------------
  O      0.347830    9.848639    2.499119
  C      0.647923    9.351900    1.442275
  C      0.453584   10.081935    0.138825
  C      1.235329    7.967310    1.354206
  H      0.145990   11.108672    0.326978
  H      1.370486   10.066103   -0.457040
  H     -0.316395    9.575772   -0.452215
  H      1.230783    7.496337    2.335143
  H      2.263066    8.026562    0.983614
  H      0.677320    7.355838    0.639703

 Total Charge           Charge          ....    0
 Multiplicity           Mult            ....    1
 Number of Electrons    NEL             ....   32
 Basis Dimension        Dim             ....  160

ORBITAL ENERGIES
----------------

  NO   OCC          E(Eh)            E(eV)
   0   2.0000     -19.199734      -522.4513
   1   2.0000     -10.316500      -280.7262
   2   2.0000     -10.213810      -277.9319
   3   2.0000     -10.212231      -277.8889
   4   2.0000      -1.083369       -29.4800
   5   2.0000      -0.787821       -21.4377
   6   2.0000      -0.723818       -19.6961
   7   2.0000      -0.549324       -14.9479
   8   2.0000      -0.475495       -12.9389
   9   2.0000      -0.472408       -12.8549
  10   2.0000      -0.470840       -12.8122
  11   2.0000      -0.406977       -11.0744
  12   2.0000      -0.402960       -10.9651
  13   2.0000      -0.381896       -10.3919
  14   2.0000      -0.370924       -10.0934
  15   2.0000      -0.271023        -7.3749
  16   0.0000      -0.012235        -0.3329
  17   0.0000       0.059356         1.6151
  18   0.0000       0.111605         3.0369
  19   0.0000       0.122022         3.3204
  20   0.0000       0.137751         3.7484

MULLIKEN ATOMIC CHARGES
-----------------------
   0 O :   -0.409478
   1 C :    0.201953
   2 C :   -0.348722
   3 C :   -0.342061
   4 H :    0.138117
   5 H :    0.170874
   6 H :    0.137837
   7 H :    0.148823
   8 H :    0.153150
   9 H :    0.149507
Sum of atomic charges:   -0.0000000

LOEWDIN ATOMIC CHARGES
----------------------
   0 O :    0.062076
   1 C :   -0.385389
   2 C :   -0.263447
   3 C :   -0.266487
   4 H :    0.133614
   5 H :    0.148374
   6 H :    0.144448
   7 H :    0.133620
   8 H :    0.148512
   9 H :    0.144679

  Mayer bond orders larger than 0.100000
B(  0-O ,  1-C ) :   2.0069 B(  1-C ,  2-C ) :   1.0035 B(  1-C ,  3-C ) :   1.0238
B(  2-C ,  4-H ) :   0.9593 B(  2-C ,  5-H ) :   0.9355 B(  2-C ,  6-H ) :   0.9346
B(  3-C ,  7-H ) :   0.9486 B(  3-C ,  8-H ) :   0.9358 B(  3-C ,  9-H ) :   0.9350

FINAL SINGLE POINT ENERGY      -193.025297675606

DIPOLE MOMENT
-------------
                                X             Y             Z
Electronic contribution:     -0.86120       1.42249       2.95428
Nuclear contribution   :      1.24999      -2.08650      -4.43757
                        -----------------------------------------
Total Dipole Moment    :      0.38880      -0.66401      -1.48330
                        -----------------------------------------
Magnitude (a.u.)       :      1.67100
Magnitude (Debye)      :      4.24734

Rotational constants in cm-1:     0.341602     0.286936     0.165457
Rotational constants in MHz : 10240.985309  8602.118847  4960.287623

                             ****ORCA TERMINATED NORMALLY****
TOTAL RUN TIME: 0 days 0 hours 0 minutes 6 seconds 996 msec
