                         Program Version 4.2.1 -  RELEASE  -
|  1> * xyz  0 1
|  2>   O    0.026670    9.371026    2.499254
|  3>   C    0.915964    9.348537    1.685390
|  4>   C    0.980951   10.340791    0.553617
|  5>   C    2.020454    8.325550    1.744480
|  6>   H    0.214299   11.102804    0.679264
|  7>   H    1.969384   10.805620    0.499304
|  8>   H    0.823045    9.821552   -0.397095
|  9>   H    1.816593    7.600415    2.529778
| 10>   H    2.973057    8.823939    1.947578
| 11>   H    2.128959    7.818379    0.781781
| 12> *
| 13>
| 14> %pal
| 15> nprocs 26
| 16> end
| 17>
| 18> %basis
| 19> GTOName ="system.bas";
| 20> GTOAuxName ="system.aux";
| 21> end
| 22>
| 23>
| 24> %pointcharges "background.crg"
| 25> ! DFT PBE0 TightSCF
| 26>
| 27>
| 28>                          ****END OF INPUT****

CARTESIAN COORDINATES (ANGSTROEM)
---------------------------------
  O      0.026670    9.371026    2.499254
  C      0.915964    9.348537    1.685390
  C      0.980951   10.340791    0.553617
  C      2.020454    8.325550    1.744480
  H      0.214299   11.102804    0.679264
  H      1.969384   10.805620    0.499304
  H      0.823045    9.821552   -0.397095
  H      1.816593    7.600415    2.529778
  H      2.973057    8.823939    1.947578
  H      2.128959    7.818379    0.781781

 Total Charge           Charge          ....    0
 Multiplicity           Mult            ....    1
 Number of Electrons    NEL             ....   32
 Basis Dimension        Dim             ....  160

ORBITAL ENERGIES
----------------

  NO   OCC          E(Eh)            E(eV)
   0   2.0000     -19.218230      -522.9546
   1   2.0000     -10.334773      -281.2235
   2   2.0000     -10.234853      -278.5045
   3   2.0000     -10.229528      -278.3596
   4   2.0000      -1.101123       -29.9631
   5   2.0000      -0.806278       -21.9400
   6   2.0000      -0.742200       -20.1963
   7   2.0000      -0.568708       -15.4753
   8   2.0000      -0.494108       -13.4454
   9   2.0000      -0.491191       -13.3660
  10   2.0000      -0.489233       -13.3127
  11   2.0000      -0.426953       -11.6180
  12   2.0000      -0.422194       -11.4885
  13   2.0000      -0.400134       -10.8882
  14   2.0000      -0.388911       -10.5828
  15   2.0000      -0.288894        -7.8612
  16   0.0000      -0.030488        -0.8296
  17   0.0000       0.039725         1.0810
  18   0.0000       0.089617         2.4386
  19   0.0000       0.106935         2.9098
  20   0.0000       0.113853         3.0981

MULLIKEN ATOMIC CHARGES
-----------------------
   0 O :   -0.411210
   1 C :    0.246483
   2 C :   -0.318876
   3 C :   -0.344102
   4 H :    0.137943
   5 H :    0.153772
   6 H :    0.127786
   7 H :    0.147647
   8 H :    0.145322
   9 H :    0.115234
Sum of atomic charges:   -0.0000000

LOEWDIN ATOMIC CHARGES
----------------------
   0 O :    0.058245
   1 C :   -0.375704
   2 C :   -0.259137
   3 C :   -0.261705
   4 H :    0.133796
   5 H :    0.144380
   6 H :    0.144376
   7 H :    0.135312
   8 H :    0.145360
   9 H :    0.135076

  Mayer bond orders larger than 0.100000
B(  0-O ,  1-C ) :   2.0590 B(  1-C ,  2-C ) :   1.0100 B(  1-C ,  3-C ) :   0.9867
B(  2-C ,  4-H ) :   0.9595 B(  2-C ,  5-H ) :   0.9429 B(  2-C ,  6-H ) :   0.9363
B(  3-C ,  7-H ) :   0.9660 B(  3-C ,  8-H ) :   0.9425 B(  3-C ,  9-H ) :   0.9485

FINAL SINGLE POINT ENERGY      -193.025150820006

DIPOLE MOMENT
-------------
                                X             Y             Z
Electronic contribution:     -2.51314       0.09199       2.33400
Nuclear contribution   :      3.72628      -0.09834      -3.42245
                        -----------------------------------------
Total Dipole Moment    :      1.21314      -0.00634      -1.08845
                        -----------------------------------------
Magnitude (a.u.)       :      1.62987
Magnitude (Debye)      :      4.14279

Rotational constants in cm-1:     0.341603     0.286936     0.165457
Rotational constants in MHz : 10240.986083  8602.115687  4960.286680

                             ****ORCA TERMINATED NORMALLY****
TOTAL RUN TIME: 0 days 0 hours 0 minutes 4 seconds 81 msec
