                         Program Version 4.2.1 -  RELEASE  -
|  1> * xyz  0 1
|  2>   O    2.677094   10.173417   13.839622
|  3>   C    2.493049   11.071917   13.056967
|  4>   C    1.956264   10.820191   11.671976
|  5>   C    2.789435   12.506090   13.410795
|  6>   H    1.660798    9.777970   11.568634
|  7>   H    1.107503   11.475807   11.457992
|  8>   H    2.729455   11.052404   10.932620
|  9>   H    3.269158   12.558932   14.386062
| 10>   H    1.858093   13.079903   13.431669
| 11>   H    3.426954   12.967340   12.651450
| 12> *
| 13>
| 14> %pal
| 15> nprocs 26
| 16> end
| 17>
| 18> %basis
| 19> GTOName ="system.bas";
| 20> GTOAuxName ="system.aux";
| 21> end
| 22>
| 23>
| 24> %pointcharges "background.crg"
| 25> ! DFT PBE0 TightSCF
| 26>
| 27>
| 28>                          ****END OF INPUT****

CARTESIAN COORDINATES (ANGSTROEM)
---------------------------------
  O      2.677094   10.173417   13.839622
  C      2.493049   11.071917   13.056967
  C      1.956264   10.820191   11.671976
  C      2.789435   12.506090   13.410795
  H      1.660798    9.777970   11.568634
  H      1.107503   11.475807   11.457992
  H      2.729455   11.052404   10.932620
  H      3.269158   12.558932   14.386062
  H      1.858093   13.079903   13.431669
  H      3.426954   12.967340   12.651450

 Total Charge           Charge          ....    0
 Multiplicity           Mult            ....    1
 Number of Electrons    NEL             ....   32
 Basis Dimension        Dim             ....  160

ORBITAL ENERGIES
----------------

  NO   OCC          E(Eh)            E(eV)
   0   2.0000     -19.215866      -522.8903
   1   2.0000     -10.331141      -281.1246
   2   2.0000     -10.229272      -278.3526
   3   2.0000     -10.222138      -278.1585
   4   2.0000      -1.100068       -29.9344
   5   2.0000      -0.801048       -21.7976
   6   2.0000      -0.736027       -20.0283
   7   2.0000      -0.563189       -15.3252
   8   2.0000      -0.489856       -13.3297
   9   2.0000      -0.485837       -13.2203
  10   2.0000      -0.485077       -13.1996
  11   2.0000      -0.421220       -11.4620
  12   2.0000      -0.414476       -11.2785
  13   2.0000      -0.394604       -10.7377
  14   2.0000      -0.385835       -10.4991
  15   2.0000      -0.287240        -7.8162
  16   0.0000      -0.026875        -0.7313
  17   0.0000       0.043016         1.1705
  18   0.0000       0.100471         2.7340
  19   0.0000       0.106743         2.9046
  20   0.0000       0.118404         3.2219

MULLIKEN ATOMIC CHARGES
-----------------------
   0 O :   -0.432531
   1 C :    0.213696
   2 C :   -0.316530
   3 C :   -0.312953
   4 H :    0.130415
   5 H :    0.133100
   6 H :    0.146149
   7 H :    0.116678
   8 H :    0.159155
   9 H :    0.162821
Sum of atomic charges:    0.0000000

LOEWDIN ATOMIC CHARGES
----------------------
   0 O :    0.048831
   1 C :   -0.383647
   2 C :   -0.258728
   3 C :   -0.257190
   4 H :    0.132393
   5 H :    0.140627
   6 H :    0.148138
   7 H :    0.131730
   8 H :    0.146880
   9 H :    0.150966

  Mayer bond orders larger than 0.100000
B(  0-O ,  1-C ) :   1.9584 B(  1-C ,  2-C ) :   1.0031 B(  1-C ,  3-C ) :   1.0292
B(  2-C ,  4-H ) :   0.9585 B(  2-C ,  5-H ) :   0.9454 B(  2-C ,  6-H ) :   0.9387
B(  3-C ,  7-H ) :   0.9547 B(  3-C ,  8-H ) :   0.9299 B(  3-C ,  9-H ) :   0.9303

FINAL SINGLE POINT ENERGY      -193.029795655127

DIPOLE MOMENT
-------------
                                X             Y             Z
Electronic contribution:      0.59980      -2.51141       2.11153
Nuclear contribution   :     -0.76435       3.76842      -3.28980
                        -----------------------------------------
Total Dipole Moment    :     -0.16455       1.25702      -1.17826
                        -----------------------------------------
Magnitude (a.u.)       :      1.73074
Magnitude (Debye)      :      4.39920

Rotational constants in cm-1:     0.341603     0.286936     0.165457
Rotational constants in MHz : 10240.986954  8602.113457  4960.286229

                             ****ORCA TERMINATED NORMALLY****
TOTAL RUN TIME: 0 days 0 hours 0 minutes 4 seconds 146 msec
