                         Program Version 4.2.1 -  RELEASE  -
|  1> !PBE0 def2-TZVP CHELPG
|  2>
|  3> *xyzfile 0 1 acetoneOpt.xyz
|  4>
|  5> %pal
|  6>  nprocs 26
|  7> end
|  8>
|  9> %elprop
| 10> Polar 1
| 11> end
| 12>
| 13>
| 14>                          ****END OF INPUT****

CARTESIAN COORDINATES (ANGSTROEM)
---------------------------------
  O      0.034238   -1.051611    0.036820
  C     -0.880485   -1.818628   -0.132566
  C     -1.431699   -2.656658    0.991522
  C     -1.532068   -1.991890   -1.479901
  H     -0.977681   -2.362060    1.935600
  H     -2.519642   -2.562253    1.050554
  H     -1.215881   -3.712630    0.799843
  H     -0.989453   -1.424280   -2.233201
  H     -2.567508   -1.641176   -1.435656
  H     -1.568821   -3.048813   -1.758016

 Total Charge           Charge          ....    0
 Multiplicity           Mult            ....    1
 Number of Electrons    NEL             ....   32
 Basis Dimension        Dim             ....  160

ORBITAL ENERGIES
----------------

  NO   OCC          E(Eh)            E(eV)
   0   2.0000     -19.192436      -522.2527
   1   2.0000     -10.313411      -280.6422
   2   2.0000     -10.226968      -278.2899
   3   2.0000     -10.226623      -278.2805
   4   2.0000      -1.074768       -29.2459
   5   2.0000      -0.797439       -21.6994
   6   2.0000      -0.736073       -20.0296
   7   2.0000      -0.552438       -15.0326
   8   2.0000      -0.480835       -13.0842
   9   2.0000      -0.479223       -13.0403
  10   2.0000      -0.470969       -12.8157
  11   2.0000      -0.418501       -11.3880
  12   2.0000      -0.412568       -11.2266
  13   2.0000      -0.394532       -10.7358
  14   2.0000      -0.367549       -10.0015
  15   2.0000      -0.265141        -7.2148
  16   0.0000      -0.011482        -0.3124
  17   0.0000       0.036363         0.9895
  18   0.0000       0.090023         2.4496
  19   0.0000       0.104847         2.8530
  20   0.0000       0.108370         2.9489

MULLIKEN ATOMIC CHARGES
-----------------------
   0 O :   -0.288418
   1 C :    0.176100
   2 C :   -0.362940
   3 C :   -0.339730
   4 H :    0.140517
   5 H :    0.138086
   6 H :    0.137568
   7 H :    0.139981
   8 H :    0.130888
   9 H :    0.127947
Sum of atomic charges:   -0.0000000

LOEWDIN ATOMIC CHARGES
----------------------
   0 O :    0.132486
   1 C :   -0.397563
   2 C :   -0.275362
   3 C :   -0.273777
   4 H :    0.133140
   5 H :    0.135502
   6 H :    0.139117
   7 H :    0.133166
   8 H :    0.138282
   9 H :    0.135010

  Mayer bond orders larger than 0.100000
B(  0-O ,  1-C ) :   2.1427 B(  1-C ,  2-C ) :   0.9858 B(  1-C ,  3-C ) :   0.9839
B(  2-C ,  4-H ) :   0.9655 B(  2-C ,  5-H ) :   0.9437 B(  2-C ,  6-H ) :   0.9420
B(  3-C ,  7-H ) :   0.9659 B(  3-C ,  8-H ) :   0.9402 B(  3-C ,  9-H ) :   0.9432

FINAL SINGLE POINT ENERGY      -193.003001460357

DIPOLE MOMENT
-------------
                                X             Y             Z
Electronic contribution:      2.94116       2.47791       0.54535
Nuclear contribution   :     -3.83286      -3.22679      -0.71067
                        -----------------------------------------
Total Dipole Moment    :     -0.89169      -0.74888      -0.16532
                        -----------------------------------------
Magnitude (a.u.)       :      1.17612
Magnitude (Debye)      :      2.98947

Rotational constants in cm-1:     0.341602     0.286936     0.165457
Rotational constants in MHz : 10240.983520  8602.115057  4960.285896

                             ****ORCA TERMINATED NORMALLY****
TOTAL RUN TIME: 0 days 0 hours 0 minutes 14 seconds 455 msec
