                         Program Version 4.2.1 -  RELEASE  -
|  1> !PBE0 def2-SVP CHELPG
|  2>
|  3> *xyzfile 0 1 acetoneOpt.xyz
|  4>
|  5> %pal
|  6>  nprocs 26
|  7> end
|  8>
|  9> %elprop
| 10> Polar 1
| 11> end
| 12>
| 13>
| 14>                          ****END OF INPUT****

CARTESIAN COORDINATES (ANGSTROEM)
---------------------------------
  O      0.035361   -1.049873    0.037270
  C     -0.880137   -1.817927   -0.132334
  C     -1.431846   -2.659346    0.994780
  C     -1.533752   -1.990983   -1.483495
  H     -0.972899   -2.354544    1.943383
  H     -2.528124   -2.571961    1.058449
  H     -1.206004   -3.722579    0.808715
  H     -0.978202   -1.422330   -2.239289
  H     -2.573097   -1.626197   -1.445184
  H     -1.580301   -3.054261   -1.767293

 Total Charge           Charge          ....    0
 Multiplicity           Mult            ....    1
 Number of Electrons    NEL             ....   32
 Basis Dimension        Dim             ....   86

ORBITAL ENERGIES
----------------

  NO   OCC          E(Eh)            E(eV)
   0   2.0000     -19.195047      -522.3238
   1   2.0000     -10.320830      -280.8441
   2   2.0000     -10.239928      -278.6426
   3   2.0000     -10.239532      -278.6318
   4   2.0000      -1.058891       -28.8139
   5   2.0000      -0.785721       -21.3806
   6   2.0000      -0.724985       -19.7278
   7   2.0000      -0.542639       -14.7660
   8   2.0000      -0.477892       -13.0041
   9   2.0000      -0.475116       -12.9286
  10   2.0000      -0.463973       -12.6254
  11   2.0000      -0.414826       -11.2880
  12   2.0000      -0.408474       -11.1151
  13   2.0000      -0.390264       -10.6196
  14   2.0000      -0.363452        -9.8900
  15   2.0000      -0.260300        -7.0831
  16   0.0000      -0.006370        -0.1733
  17   0.0000       0.061165         1.6644
  18   0.0000       0.117594         3.1999
  19   0.0000       0.124221         3.3802
  20   0.0000       0.132086         3.5943

MULLIKEN ATOMIC CHARGES
-----------------------
   0 O :   -0.222281
   1 C :   -0.014763
   2 C :   -0.074577
   3 C :   -0.071541
   4 H :    0.063463
   5 H :    0.061057
   6 H :    0.068427
   7 H :    0.065283
   8 H :    0.065860
   9 H :    0.059072
Sum of atomic charges:   -0.0000000

LOEWDIN ATOMIC CHARGES
----------------------
   0 O :   -0.151355
   1 C :    0.073742
   2 C :   -0.098445
   3 C :   -0.097741
   4 H :    0.042800
   5 H :    0.044127
   6 H :    0.050226
   7 H :    0.043022
   8 H :    0.049575
   9 H :    0.044050

  Mayer bond orders larger than 0.100000
B(  0-O ,  1-C ) :   2.1505 B(  1-C ,  2-C ) :   0.9991 B(  1-C ,  3-C ) :   1.0021
B(  2-C ,  4-H ) :   0.9597 B(  2-C ,  5-H ) :   0.9564 B(  2-C ,  6-H ) :   0.9502
B(  3-C ,  7-H ) :   0.9596 B(  3-C ,  8-H ) :   0.9487 B(  3-C ,  9-H ) :   0.9561

FINAL SINGLE POINT ENERGY      -192.786258371991

DIPOLE MOMENT
-------------
                                X             Y             Z
Electronic contribution:      2.98240       2.51329       0.55386
Nuclear contribution   :     -3.83255      -3.22876      -0.71153
                        -----------------------------------------
Total Dipole Moment    :     -0.85015      -0.71547      -0.15767
                        -----------------------------------------
Magnitude (a.u.)       :      1.12228
Magnitude (Debye)      :      2.85262

Rotational constants in cm-1:     0.340004     0.284772     0.164513
Rotational constants in MHz : 10193.068755  8537.250246  4931.967475

                             ****ORCA TERMINATED NORMALLY****
TOTAL RUN TIME: 0 days 0 hours 0 minutes 6 seconds 449 msec
