                         Program Version 4.2.1 -  RELEASE  -
|  1> !PBE0 def2-TZVP OPT
|  2>
|  3> *xyz 0 1
|  4> O  0.006  -0.848   0.086
|  5> C -0.873  -1.710  -0.085
|  6> C -1.406  -2.648   0.972
|  7> C -1.572  -1.974  -1.412
|  8> H -1.093  -2.515   1.991
|  9> H -2.463  -2.735   1.032
| 10> H -1.069  -3.613   0.608
| 11> H -0.905  -1.801  -2.305
| 12> H -2.474  -1.426  -1.590
| 13> H -1.800  -3.000  -1.522
| 14> *
| 15>
| 16> %pal
| 17>  nprocs 26
| 18> end
| 19>
| 20>
| 21>                          ****END OF INPUT****
 Total Charge           Charge          ....    0
 Multiplicity           Mult            ....    1
 Number of Electrons    NEL             ....   32
FINAL SINGLE POINT ENERGY      -192.988805879308
FINAL SINGLE POINT ENERGY      -192.999400448220
FINAL SINGLE POINT ENERGY      -193.002007642044
FINAL SINGLE POINT ENERGY      -193.002508464131
FINAL SINGLE POINT ENERGY      -193.002778023519
FINAL SINGLE POINT ENERGY      -193.002827324641
FINAL SINGLE POINT ENERGY      -193.002870116118
FINAL SINGLE POINT ENERGY      -193.002932969361
FINAL SINGLE POINT ENERGY      -193.002972955413
FINAL SINGLE POINT ENERGY      -193.002991134396
FINAL SINGLE POINT ENERGY      -193.002998730331
FINAL SINGLE POINT ENERGY      -193.003000719771
                    ***********************HURRAY********************

CARTESIAN COORDINATES (ANGSTROEM)
---------------------------------
  O      0.034238   -1.051611    0.036820
  C     -0.880485   -1.818628   -0.132566
  C     -1.431699   -2.656658    0.991522
  C     -1.532068   -1.991890   -1.479901
  H     -0.977681   -2.362060    1.935600
  H     -2.519642   -2.562253    1.050554
  H     -1.215881   -3.712630    0.799843
  H     -0.989453   -1.424280   -2.233201
  H     -2.567508   -1.641176   -1.435656
  H     -1.568821   -3.048813   -1.758016

 Multiplicity           Mult            ....    1
 Number of Electrons    NEL             ....   32
 Basis Dimension        Dim             ....  160

ORBITAL ENERGIES
----------------

  NO   OCC          E(Eh)            E(eV)
   0   2.0000     -19.192426      -522.2525
   1   2.0000     -10.313412      -280.6422
   2   2.0000     -10.227049      -278.2921
   3   2.0000     -10.226706      -278.2828
   4   2.0000      -1.074768       -29.2459
   5   2.0000      -0.797467       -21.7002
   6   2.0000      -0.736102       -20.0303
   7   2.0000      -0.552456       -15.0331
   8   2.0000      -0.480853       -13.0847
   9   2.0000      -0.479242       -13.0408
  10   2.0000      -0.470983       -12.8161
  11   2.0000      -0.418525       -11.3887
  12   2.0000      -0.412583       -11.2269
  13   2.0000      -0.394555       -10.7364
  14   2.0000      -0.367555       -10.0017
  15   2.0000      -0.265149        -7.2151
  16   0.0000      -0.011489        -0.3126
  17   0.0000       0.036355         0.9893
  18   0.0000       0.090016         2.4495
  19   0.0000       0.104837         2.8528
  20   0.0000       0.108360         2.9486

MULLIKEN ATOMIC CHARGES
-----------------------
   0 O :   -0.288431
   1 C :    0.176074
   2 C :   -0.362846
   3 C :   -0.339632
   4 H :    0.140493
   5 H :    0.138062
   6 H :    0.137542
   7 H :    0.139956
   8 H :    0.130861
   9 H :    0.127921
Sum of atomic charges:    0.0000000

LOEWDIN ATOMIC CHARGES
----------------------
   0 O :    0.132471
   1 C :   -0.397579
   2 C :   -0.275307
   3 C :   -0.273720
   4 H :    0.133126
   5 H :    0.135489
   6 H :    0.139103
   7 H :    0.133152
   8 H :    0.138268
   9 H :    0.134996

  Mayer bond orders larger than 0.100000
B(  0-O ,  1-C ) :   2.1427 B(  1-C ,  2-C ) :   0.9858 B(  1-C ,  3-C ) :   0.9839
B(  2-C ,  4-H ) :   0.9655 B(  2-C ,  5-H ) :   0.9437 B(  2-C ,  6-H ) :   0.9420
B(  3-C ,  7-H ) :   0.9659 B(  3-C ,  8-H ) :   0.9402 B(  3-C ,  9-H ) :   0.9432

FINAL SINGLE POINT ENERGY      -193.003001436819

DIPOLE MOMENT
-------------
                                X             Y             Z
Electronic contribution:      2.94115       2.47790       0.54534
Nuclear contribution   :     -3.83286      -3.22679      -0.71067
                        -----------------------------------------
Total Dipole Moment    :     -0.89170      -0.74889      -0.16532
                        -----------------------------------------
Magnitude (a.u.)       :      1.17614
Magnitude (Debye)      :      2.98950

Rotational constants in cm-1:     0.341602     0.286936     0.165457
Rotational constants in MHz : 10240.983520  8602.115057  4960.285896

                             ****ORCA TERMINATED NORMALLY****
TOTAL RUN TIME: 0 days 0 hours 1 minutes 19 seconds 107 msec
