                         Program Version 4.2.1 -  RELEASE  -
|  1> !PBE0 def2-SVP OPT
|  2>
|  3> *xyz 0 1
|  4> O  0.006  -0.848   0.086
|  5> C -0.873  -1.710  -0.085
|  6> C -1.406  -2.648   0.972
|  7> C -1.572  -1.974  -1.412
|  8> H -1.093  -2.515   1.991
|  9> H -2.463  -2.735   1.032
| 10> H -1.069  -3.613   0.608
| 11> H -0.905  -1.801  -2.305
| 12> H -2.474  -1.426  -1.590
| 13> H -1.800  -3.000  -1.522
| 14> *
| 15>
| 16> %pal
| 17>  nprocs 26
| 18> end
| 19>
| 20>
| 21>                          ****END OF INPUT****
 Total Charge           Charge          ....    0
 Multiplicity           Mult            ....    1
 Number of Electrons    NEL             ....   32
FINAL SINGLE POINT ENERGY      -192.770919369838
FINAL SINGLE POINT ENERGY      -192.782605856693
FINAL SINGLE POINT ENERGY      -192.785156935872
FINAL SINGLE POINT ENERGY      -192.785797760214
FINAL SINGLE POINT ENERGY      -192.785983399653
FINAL SINGLE POINT ENERGY      -192.786079524971
FINAL SINGLE POINT ENERGY      -192.786114602917
FINAL SINGLE POINT ENERGY      -192.786188655917
FINAL SINGLE POINT ENERGY      -192.786226928470
FINAL SINGLE POINT ENERGY      -192.786246523630
FINAL SINGLE POINT ENERGY      -192.786254587238
FINAL SINGLE POINT ENERGY      -192.786257374611
                    ***********************HURRAY********************

CARTESIAN COORDINATES (ANGSTROEM)
---------------------------------
  O      0.035361   -1.049873    0.037270
  C     -0.880137   -1.817927   -0.132334
  C     -1.431846   -2.659346    0.994780
  C     -1.533752   -1.990983   -1.483495
  H     -0.972899   -2.354544    1.943383
  H     -2.528124   -2.571961    1.058449
  H     -1.206004   -3.722579    0.808715
  H     -0.978202   -1.422330   -2.239289
  H     -2.573097   -1.626197   -1.445184
  H     -1.580301   -3.054261   -1.767293

 Multiplicity           Mult            ....    1
 Number of Electrons    NEL             ....   32
 Basis Dimension        Dim             ....   86

ORBITAL ENERGIES
----------------

  NO   OCC          E(Eh)            E(eV)
   0   2.0000     -19.195412      -522.3337
   1   2.0000     -10.320661      -280.8395
   2   2.0000     -10.239743      -278.6376
   3   2.0000     -10.239350      -278.6269
   4   2.0000      -1.058976       -28.8162
   5   2.0000      -0.785637       -21.3783
   6   2.0000      -0.724902       -19.7256
   7   2.0000      -0.542599       -14.7649
   8   2.0000      -0.477851       -13.0030
   9   2.0000      -0.475066       -12.9272
  10   2.0000      -0.463988       -12.6257
  11   2.0000      -0.414755       -11.2861
  12   2.0000      -0.408478       -11.1153
  13   2.0000      -0.390202       -10.6179
  14   2.0000      -0.363500        -9.8913
  15   2.0000      -0.260373        -7.0851
  16   0.0000      -0.006368        -0.1733
  17   0.0000       0.061196         1.6652
  18   0.0000       0.117618         3.2006
  19   0.0000       0.124251         3.3811
  20   0.0000       0.132126         3.5953

MULLIKEN ATOMIC CHARGES
-----------------------
   0 O :   -0.221894
   1 C :   -0.015114
   2 C :   -0.074790
   3 C :   -0.071749
   4 H :    0.063532
   5 H :    0.061119
   6 H :    0.068490
   7 H :    0.065351
   8 H :    0.065922
   9 H :    0.059133
Sum of atomic charges:   -0.0000000

LOEWDIN ATOMIC CHARGES
----------------------
   0 O :   -0.151027
   1 C :    0.073482
   2 C :   -0.098578
   3 C :   -0.097871
   4 H :    0.042838
   5 H :    0.044158
   6 H :    0.050256
   7 H :    0.043059
   8 H :    0.049604
   9 H :    0.044080

  Mayer bond orders larger than 0.100000
B(  0-O ,  1-C ) :   2.1507 B(  1-C ,  2-C ) :   0.9991 B(  1-C ,  3-C ) :   1.0021
B(  2-C ,  4-H ) :   0.9597 B(  2-C ,  5-H ) :   0.9564 B(  2-C ,  6-H ) :   0.9502
B(  3-C ,  7-H ) :   0.9596 B(  3-C ,  8-H ) :   0.9487 B(  3-C ,  9-H ) :   0.9561

FINAL SINGLE POINT ENERGY      -192.786258565577

DIPOLE MOMENT
-------------
                                X             Y             Z
Electronic contribution:      2.98294       2.51374       0.55396
Nuclear contribution   :     -3.83255      -3.22876      -0.71153
                        -----------------------------------------
Total Dipole Moment    :     -0.84962      -0.71502      -0.15757
                        -----------------------------------------
Magnitude (a.u.)       :      1.12158
Magnitude (Debye)      :      2.85082

Rotational constants in cm-1:     0.340004     0.284772     0.164513
Rotational constants in MHz : 10193.068755  8537.250246  4931.967475

                             ****ORCA TERMINATED NORMALLY****
TOTAL RUN TIME: 0 days 0 hours 0 minutes 43 seconds 718 msec
