                         Program Version 4.2.1 -  RELEASE  -
|  1> * xyz  0 1
|  2>   O    0.026670    9.371025    2.499254
|  3>   C    0.915964    9.348536    1.685390
|  4>   C    0.980951   10.340790    0.553617
|  5>   C    2.020454    8.325549    1.744480
|  6>   H    0.214299   11.102803    0.679264
|  7>   H    1.969384   10.805619    0.499304
|  8>   H    0.823045    9.821551   -0.397095
|  9>   H    1.816593    7.600414    2.529778
| 10>   H    2.973057    8.823938    1.947578
| 11>   H    2.128959    7.818378    0.781781
| 12> *
| 13>
| 14> %pal
| 15> nprocs 26
| 16> end
| 17>
| 18> %basis
| 19> GTOName ="system.bas";
| 20> GTOAuxName ="system.aux";
| 21> end
| 22>
| 23>
| 24> %pointcharges "background.crg"
| 25> ! DFT PBE0 TightSCF
| 26>
| 27>
| 28>                          ****END OF INPUT****

CARTESIAN COORDINATES (ANGSTROEM)
---------------------------------
  O      0.026670    9.371025    2.499254
  C      0.915964    9.348536    1.685390
  C      0.980951   10.340790    0.553617
  C      2.020454    8.325549    1.744480
  H      0.214299   11.102803    0.679264
  H      1.969384   10.805619    0.499304
  H      0.823045    9.821551   -0.397095
  H      1.816593    7.600414    2.529778
  H      2.973057    8.823938    1.947578
  H      2.128959    7.818378    0.781781

 Total Charge           Charge          ....    0
 Multiplicity           Mult            ....    1
 Number of Electrons    NEL             ....   32
 Basis Dimension        Dim             ....  160

ORBITAL ENERGIES
----------------

  NO   OCC          E(Eh)            E(eV)
   0   2.0000     -19.215632      -522.8839
   1   2.0000     -10.332763      -281.1688
   2   2.0000     -10.234776      -278.5024
   3   2.0000     -10.229298      -278.3533
   4   2.0000      -1.098492       -29.8915
   5   2.0000      -0.805698       -21.9242
   6   2.0000      -0.741878       -20.1875
   7   2.0000      -0.567014       -15.4292
   8   2.0000      -0.493014       -13.4156
   9   2.0000      -0.489178       -13.3112
  10   2.0000      -0.488434       -13.2910
  11   2.0000      -0.426009       -11.5923
  12   2.0000      -0.422391       -11.4939
  13   2.0000      -0.399663       -10.8754
  14   2.0000      -0.387091       -10.5333
  15   2.0000      -0.286590        -7.7985
  16   0.0000      -0.028917        -0.7869
  17   0.0000       0.038800         1.0558
  18   0.0000       0.088744         2.4148
  19   0.0000       0.107284         2.9193
  20   0.0000       0.112569         3.0631

MULLIKEN ATOMIC CHARGES
-----------------------
   0 O :   -0.397870
   1 C :    0.240336
   2 C :   -0.316951
   3 C :   -0.342486
   4 H :    0.140858
   5 H :    0.149316
   6 H :    0.123976
   7 H :    0.150103
   8 H :    0.141867
   9 H :    0.110850
Sum of atomic charges:   -0.0000000

LOEWDIN ATOMIC CHARGES
----------------------
   0 O :    0.066645
   1 C :   -0.377837
   2 C :   -0.260004
   3 C :   -0.262740
   4 H :    0.134481
   5 H :    0.142904
   6 H :    0.143035
   7 H :    0.135788
   8 H :    0.144119
   9 H :    0.133609

  Mayer bond orders larger than 0.100000
B(  0-O ,  1-C ) :   2.0702 B(  1-C ,  2-C ) :   1.0068 B(  1-C ,  3-C ) :   0.9838
B(  2-C ,  4-H ) :   0.9600 B(  2-C ,  5-H ) :   0.9440 B(  2-C ,  6-H ) :   0.9370
B(  3-C ,  7-H ) :   0.9661 B(  3-C ,  8-H ) :   0.9437 B(  3-C ,  9-H ) :   0.9494

FINAL SINGLE POINT ENERGY      -193.022064153032

DIPOLE MOMENT
-------------
                                X             Y             Z
Electronic contribution:     -2.55989       0.09622       2.37476
Nuclear contribution   :      3.72628      -0.09834      -3.42245
                        -----------------------------------------
Total Dipole Moment    :      1.16639      -0.00212      -1.04769
                        -----------------------------------------
Magnitude (a.u.)       :      1.56784
Magnitude (Debye)      :      3.98514

Rotational constants in cm-1:     0.341603     0.286936     0.165457
Rotational constants in MHz : 10240.986083  8602.115687  4960.286680

                             ****ORCA TERMINATED NORMALLY****
TOTAL RUN TIME: 0 days 0 hours 0 minutes 4 seconds 1 msec
