                         Program Version 4.2.1 -  RELEASE  -
|  1> !PBE0 def2-SVP CHELPG
|  2>
|  3> *xyzfile 0 1 waterOpt.xyz
|  4>
|  5> %pal
|  6>  nprocs 26
|  7> end
|  8>
|  9> %elprop
| 10> Polar 1
| 11> end
| 12>
| 13>
| 14>                          ****END OF INPUT****

CARTESIAN COORDINATES (ANGSTROEM)
---------------------------------
  O      0.000000    0.000000   -0.013697
  H      0.754409    0.000000    0.584207
  H     -0.754409    0.000000    0.584207

 Total Charge           Charge          ....    0
 Multiplicity           Mult            ....    1
 Number of Electrons    NEL             ....   10
 Basis Dimension        Dim             ....   24

ORBITAL ENERGIES
----------------

  NO   OCC          E(Eh)            E(eV)
   0   2.0000     -19.192505      -522.2546
   1   2.0000      -1.007113       -27.4049
   2   2.0000      -0.526413       -14.3244
   3   2.0000      -0.382673       -10.4131
   4   2.0000      -0.305055        -8.3010
   5   0.0000       0.064239         1.7480
   6   0.0000       0.141999         3.8640
   7   0.0000       0.576362        15.6836
   8   0.0000       0.644297        17.5322
   9   0.0000       0.941453        25.6182

MULLIKEN ATOMIC CHARGES
-----------------------
   0 O :   -0.305682
   1 H :    0.152841
   2 H :    0.152841
Sum of atomic charges:    0.0000000

LOEWDIN ATOMIC CHARGES
----------------------
   0 O :   -0.148182
   1 H :    0.074091
   2 H :    0.074091

  Mayer bond orders larger than 0.100000
B(  0-O ,  1-H ) :   1.0080 B(  0-O ,  2-H ) :   1.0080

FINAL SINGLE POINT ENERGY       -76.276325962299

DIPOLE MOMENT
-------------
                                X             Y             Z
Electronic contribution:      0.00000       0.00000      -0.19794
Nuclear contribution   :     -0.00000       0.00000       0.99534
                        -----------------------------------------
Total Dipole Moment    :     -0.00000       0.00000       0.79741
                        -----------------------------------------
Magnitude (a.u.)       :      0.79741
Magnitude (Debye)      :      2.02685

Rotational constants in cm-1:    26.338105    14.692404     9.431276
Rotational constants in MHz : 789596.512179 440467.177094 282742.552110

                             ****ORCA TERMINATED NORMALLY****
TOTAL RUN TIME: 0 days 0 hours 0 minutes 4 seconds 922 msec
