                         Program Version 4.2.1 -  RELEASE  -
|  1> !PBE0 def2-TZVP CHELPG
|  2>
|  3> *xyzfile 0 1 waterOpt.xyz
|  4>
|  5> %pal
|  6>  nprocs 26
|  7> end
|  8>
|  9> %elprop
| 10> Polar 1
| 11> end
| 12>
| 13>
| 14>                          ****END OF INPUT****

CARTESIAN COORDINATES (ANGSTROEM)
---------------------------------
  O      0.000000    0.000000   -0.004332
  H      0.761461    0.000000    0.579525
  H     -0.761461    0.000000    0.579525

 Total Charge           Charge          ....    0
 Multiplicity           Mult            ....    1
 Number of Electrons    NEL             ....   10
 Basis Dimension        Dim             ....   43

ORBITAL ENERGIES
----------------

  NO   OCC          E(Eh)            E(eV)
   0   2.0000     -19.201202      -522.4913
   1   2.0000      -1.038804       -28.2673
   2   2.0000      -0.546715       -14.8769
   3   2.0000      -0.402354       -10.9486
   4   2.0000      -0.326531        -8.8854
   5   0.0000       0.032066         0.8726
   6   0.0000       0.105937         2.8827
   7   0.0000       0.375652        10.2220
   8   0.0000       0.425848        11.5879
   9   0.0000       0.445491        12.1224

MULLIKEN ATOMIC CHARGES
-----------------------
   0 O :   -0.641085
   1 H :    0.320542
   2 H :    0.320542
Sum of atomic charges:    0.0000000

LOEWDIN ATOMIC CHARGES
----------------------
   0 O :   -0.306922
   1 H :    0.153461
   2 H :    0.153461

  Mayer bond orders larger than 0.100000
B(  0-O ,  1-H ) :   0.9095 B(  0-O ,  2-H ) :   0.9095

FINAL SINGLE POINT ENERGY       -76.377326061310

DIPOLE MOMENT
-------------
                                X             Y             Z
Electronic contribution:      0.00000       0.00000      -0.15940
Nuclear contribution   :     -0.00000       0.00000       0.97196
                        -----------------------------------------
Total Dipole Moment    :     -0.00000       0.00000       0.81256
                        -----------------------------------------
Magnitude (a.u.)       :      0.81256
Magnitude (Debye)      :      2.06536

Rotational constants in cm-1:    27.620649    14.421510     9.474572
Rotational constants in MHz : 828046.232126 432345.989182 284040.524263

                             ****ORCA TERMINATED NORMALLY****
TOTAL RUN TIME: 0 days 0 hours 0 minutes 5 seconds 529 msec
