                         Program Version 4.2.1 -  RELEASE  -
|  1> !PBE0 def2-TZVP OPT
|  2>
|  3> *xyz 0 1
|  4> O 0.0000000 0.00000 0.000000
|  5> H 0.8164904 0.00000  0.5773590
|  6> H -0.8164904 0.00000 0.5773590
|  7> *
|  8>
|  9> %pal
| 10>  nprocs 26
| 11> end
| 12>
| 13>
| 14>
| 15>                          ****END OF INPUT****
 Total Charge           Charge          ....    0
 Multiplicity           Mult            ....    1
 Number of Electrons    NEL             ....   10
FINAL SINGLE POINT ENERGY       -76.373647601739
FINAL SINGLE POINT ENERGY       -76.377253082278
FINAL SINGLE POINT ENERGY       -76.377309539495
FINAL SINGLE POINT ENERGY       -76.377325951904
                    ***********************HURRAY********************

CARTESIAN COORDINATES (ANGSTROEM)
---------------------------------
  O      0.000000    0.000000   -0.004332
  H      0.761461    0.000000    0.579525
  H     -0.761461    0.000000    0.579525

 Multiplicity           Mult            ....    1
 Number of Electrons    NEL             ....   10
 Basis Dimension        Dim             ....   43

ORBITAL ENERGIES
----------------

  NO   OCC          E(Eh)            E(eV)
   0   2.0000     -19.200963      -522.4848
   1   2.0000      -1.038733       -28.2654
   2   2.0000      -0.546658       -14.8753
   3   2.0000      -0.402282       -10.9467
   4   2.0000      -0.326454        -8.8833
   5   0.0000       0.032075         0.8728
   6   0.0000       0.105946         2.8829
   7   0.0000       0.375664        10.2223
   8   0.0000       0.425860        11.5883
   9   0.0000       0.445522        12.1233

MULLIKEN ATOMIC CHARGES
-----------------------
   0 O :   -0.641098
   1 H :    0.320549
   2 H :    0.320549
Sum of atomic charges:    0.0000000

LOEWDIN ATOMIC CHARGES
----------------------
   0 O :   -0.306983
   1 H :    0.153491
   2 H :    0.153491

  Mayer bond orders larger than 0.100000
B(  0-O ,  1-H ) :   0.9095 B(  0-O ,  2-H ) :   0.9095

FINAL SINGLE POINT ENERGY       -76.377325963214

DIPOLE MOMENT
-------------
                                X             Y             Z
Electronic contribution:      0.00000       0.00000      -0.15947
Nuclear contribution   :     -0.00000       0.00000       0.97196
                        -----------------------------------------
Total Dipole Moment    :     -0.00000       0.00000       0.81249
                        -----------------------------------------
Magnitude (a.u.)       :      0.81249
Magnitude (Debye)      :      2.06518

Rotational constants in cm-1:    27.620649    14.421510     9.474572
Rotational constants in MHz : 828046.232126 432345.989182 284040.524263

                             ****ORCA TERMINATED NORMALLY****
TOTAL RUN TIME: 0 days 0 hours 0 minutes 14 seconds 148 msec
