                         Program Version 4.2.1 -  RELEASE  -
                         Program Version 4.2.1 -  RELEASE  -
|  1> !PBE0 def2-SVP OPT
|  2>
|  3> *xyz 0 1
|  4> O 0.0000000 0.00000 0.000000
|  5> H 0.8164904 0.00000  0.5773590
|  6> H -0.8164904 0.00000 0.5773590
|  7> *
|  8>
|  9> %pal
| 10>  nprocs 26
| 11> end
| 12>
| 13>
| 14>
| 15>                          ****END OF INPUT****
 Total Charge           Charge          ....    0
 Multiplicity           Mult            ....    1
 Number of Electrons    NEL             ....   10
FINAL SINGLE POINT ENERGY       -76.272466673437
FINAL SINGLE POINT ENERGY       -76.276130112066
FINAL SINGLE POINT ENERGY       -76.276278474780
FINAL SINGLE POINT ENERGY       -76.276325890639
                    ***********************HURRAY********************

CARTESIAN COORDINATES (ANGSTROEM)
---------------------------------
  O      0.000000    0.000000   -0.013697
  H      0.754409    0.000000    0.584207
  H     -0.754409    0.000000    0.584207

 Multiplicity           Mult            ....    1
 Number of Electrons    NEL             ....   10
 Basis Dimension        Dim             ....   24

ORBITAL ENERGIES
----------------

  NO   OCC          E(Eh)            E(eV)
   0   2.0000     -19.192411      -522.2521
   1   2.0000      -1.007089       -27.4043
   2   2.0000      -0.526393       -14.3239
   3   2.0000      -0.382651       -10.4125
   4   2.0000      -0.305029        -8.3003
   5   0.0000       0.064244         1.7482
   6   0.0000       0.142004         3.8641
   7   0.0000       0.576369        15.6838
   8   0.0000       0.644307        17.5325
   9   0.0000       0.941469        25.6187

MULLIKEN ATOMIC CHARGES
-----------------------
   0 O :   -0.305618
   1 H :    0.152809
   2 H :    0.152809
Sum of atomic charges:    0.0000000

LOEWDIN ATOMIC CHARGES
----------------------
   0 O :   -0.148173
   1 H :    0.074086
   2 H :    0.074086

  Mayer bond orders larger than 0.100000
B(  0-O ,  1-H ) :   1.0080 B(  0-O ,  2-H ) :   1.0080

FINAL SINGLE POINT ENERGY       -76.276325871437

DIPOLE MOMENT
-------------
                                X             Y             Z
Electronic contribution:     -0.00000      -0.00000      -0.19809
Nuclear contribution   :     -0.00000       0.00000       0.99534
                        -----------------------------------------
Total Dipole Moment    :     -0.00000      -0.00000       0.79726
                        -----------------------------------------
Magnitude (a.u.)       :      0.79726
Magnitude (Debye)      :      2.02647

Rotational constants in cm-1:    26.338105    14.692404     9.431276
Rotational constants in MHz : 789596.512179 440467.177094 282742.552110

                             ****ORCA TERMINATED NORMALLY****
TOTAL RUN TIME: 0 days 0 hours 0 minutes 12 seconds 731 msec
