                         Program Version 4.2.1 -  RELEASE  -
|  1> * xyz  0 1
|  2>   O   -0.303698    9.710761    3.105882
|  3>   C    0.331926    9.400484    2.129443
|  4>   C    0.020347    9.964614    0.767688
|  5>   C    1.478821    8.426437    2.205318
|  6>   H   -0.734265   10.744439    0.849171
|  7>   H    0.922985   10.361240    0.294455
|  8>   H   -0.352571    9.166314    0.118039
|  9>   H    1.545058    8.004339    3.206078
| 10>   H    2.414310    8.940087    1.964241
| 11>   H    1.357680    7.628994    1.466945
| 12> *
| 13>
| 14> %pal
| 15> nprocs 26
| 16> end
| 17>
| 18> %basis
| 19> GTOName ="system.bas";
| 20> GTOAuxName ="system.aux";
| 21> end
| 22>
| 23>
| 24> %pointcharges "background.crg"
| 25> ! DFT PBE0 TightSCF
| 26>
| 27>
| 28>                          ****END OF INPUT****

CARTESIAN COORDINATES (ANGSTROEM)
---------------------------------
  O     -0.303698    9.710761    3.105882
  C      0.331926    9.400484    2.129443
  C      0.020347    9.964614    0.767688
  C      1.478821    8.426437    2.205318
  H     -0.734265   10.744439    0.849171
  H      0.922985   10.361240    0.294455
  H     -0.352571    9.166314    0.118039
  H      1.545058    8.004339    3.206078
  H      2.414310    8.940087    1.964241
  H      1.357680    7.628994    1.466945

 Total Charge           Charge          ....    0
 Multiplicity           Mult            ....    1
 Number of Electrons    NEL             ....   32
 Basis Dimension        Dim             ....  160

ORBITAL ENERGIES
----------------

  NO   OCC          E(Eh)            E(eV)
   0   2.0000     -19.189918      -522.1842
   1   2.0000     -10.310938      -280.5749
   2   2.0000     -10.213153      -277.9140
   3   2.0000     -10.211357      -277.8652
   4   2.0000      -1.074031       -29.2259
   5   2.0000      -0.785771       -21.3819
   6   2.0000      -0.722310       -19.6550
   7   2.0000      -0.545143       -14.8341
   8   2.0000      -0.471194       -12.8218
   9   2.0000      -0.469275       -12.7696
  10   2.0000      -0.465389       -12.6639
  11   2.0000      -0.404181       -10.9983
  12   2.0000      -0.403270       -10.9735
  13   2.0000      -0.379745       -10.3334
  14   2.0000      -0.365454        -9.9445
  15   2.0000      -0.261479        -7.1152
  16   0.0000      -0.008389        -0.2283
  17   0.0000       0.055788         1.5181
  18   0.0000       0.107690         2.9304
  19   0.0000       0.125799         3.4232
  20   0.0000       0.130658         3.5554

MULLIKEN ATOMIC CHARGES
-----------------------
   0 O :   -0.384049
   1 C :    0.208194
   2 C :   -0.387400
   3 C :   -0.313617
   4 H :    0.175052
   5 H :    0.148471
   6 H :    0.140814
   7 H :    0.144838
   8 H :    0.116040
   9 H :    0.151657
Sum of atomic charges:   -0.0000000

LOEWDIN ATOMIC CHARGES
----------------------
   0 O :    0.079228
   1 C :   -0.382098
   2 C :   -0.272808
   3 C :   -0.263499
   4 H :    0.138958
   5 H :    0.141602
   6 H :    0.141221
   7 H :    0.136266
   8 H :    0.139716
   9 H :    0.141415

  Mayer bond orders larger than 0.100000
B(  0-O ,  1-C ) :   2.0508 B(  1-C ,  2-C ) :   0.9979 B(  1-C ,  3-C ) :   1.0228
B(  2-C ,  4-H ) :   0.9595 B(  2-C ,  5-H ) :   0.9375 B(  2-C ,  6-H ) :   0.9367
B(  3-C ,  7-H ) :   0.9616 B(  3-C ,  8-H ) :   0.9283 B(  3-C ,  9-H ) :   0.9396

FINAL SINGLE POINT ENERGY      -193.016837024434

DIPOLE MOMENT
-------------
                                X             Y             Z
Electronic contribution:     -1.80531       0.99270       2.97318
Nuclear contribution   :      2.66034      -1.30800      -4.10118
                        -----------------------------------------
Total Dipole Moment    :      0.85503      -0.31530      -1.12800
                        -----------------------------------------
Magnitude (a.u.)       :      1.45013
Magnitude (Debye)      :      3.68594

Rotational constants in cm-1:     0.341603     0.286936     0.165457
Rotational constants in MHz : 10240.987412  8602.118984  4960.288053

                             ****ORCA TERMINATED NORMALLY****
TOTAL RUN TIME: 0 days 0 hours 0 minutes 4 seconds 566 msec
